file 13311539 1628439460                                        
version 2
run General-0-20210809-00:17:02-3732
attr configname General
attr datetime 20210809-00:17:02
attr experiment General
attr inifile omnetpp.ini
attr iterationvars ""
attr iterationvarsf ""
attr measurement ""
attr network SatNet
attr processid 3732
attr repetition 0
attr replication #0
attr resultdir results
attr runnumber 0
attr seedset 0

vector 0 SatNet.sat1_1.upper$o.channel busy:vector ETV
attr interpolationmode sample-hold
attr source channelBusy
vector 1 SatNet.sat1_1.lower$o.channel busy:vector ETV
attr interpolationmode sample-hold
attr source channelBusy
vector 2 SatNet.sat1_1.right$o.channel busy:vector ETV
attr interpolationmode sample-hold
attr source channelBusy
vector 3 SatNet.sat1_2.upper$o.channel busy:vector ETV
attr interpolationmode sample-hold
attr source channelBusy
vector 4 SatNet.sat1_2.lower$o.channel busy:vector ETV
attr interpolationmode sample-hold
attr source channelBusy
vector 5 SatNet.sat1_2.right$o.channel busy:vector ETV
attr interpolationmode sample-hold
attr source channelBusy
vector 6 SatNet.sat1_3.upper$o.channel busy:vector ETV
attr interpolationmode sample-hold
attr source channelBusy
vector 7 SatNet.sat1_3.lower$o.channel busy:vector ETV
attr interpolationmode sample-hold
attr source channelBusy
vector 8 SatNet.sat1_3.right$o.channel busy:vector ETV
attr interpolationmode sample-hold
attr source channelBusy
vector 9 SatNet.sat1_4.upper$o.channel busy:vector ETV
attr interpolationmode sample-hold
attr source channelBusy
vector 10 SatNet.sat1_4.lower$o.channel busy:vector ETV
attr interpolationmode sample-hold
attr source channelBusy
vector 11 SatNet.sat1_4.right$o.channel busy:vector ETV
attr interpolationmode sample-hold
attr source channelBusy
vector 12 SatNet.sat1_5.upper$o.channel busy:vector ETV
attr interpolationmode sample-hold
attr source channelBusy
vector 13 SatNet.sat1_5.lower$o.channel busy:vector ETV
attr interpolationmode sample-hold
attr source channelBusy
vector 14 SatNet.sat1_5.right$o.channel busy:vector ETV
attr interpolationmode sample-hold
attr source channelBusy
vector 15 SatNet.sat1_6.upper$o.channel busy:vector ETV
attr interpolationmode sample-hold
attr source channelBusy
vector 16 SatNet.sat1_6.lower$o.channel busy:vector ETV
attr interpolationmode sample-hold
attr source channelBusy
vector 17 SatNet.sat1_6.right$o.channel busy:vector ETV
attr interpolationmode sample-hold
attr source channelBusy
vector 18 SatNet.sat1_7.upper$o.channel busy:vector ETV
attr interpolationmode sample-hold
attr source channelBusy
vector 19 SatNet.sat1_7.lower$o.channel busy:vector ETV
attr interpolationmode sample-hold
attr source channelBusy
vector 20 SatNet.sat1_7.right$o.channel busy:vector ETV
attr interpolationmode sample-hold
attr source channelBusy
vector 21 SatNet.sat1_8.upper$o.channel busy:vector ETV
attr interpolationmode sample-hold
attr source channelBusy
vector 22 SatNet.sat1_8.lower$o.channel busy:vector ETV
attr interpolationmode sample-hold
attr source channelBusy
vector 23 SatNet.sat1_8.right$o.channel busy:vector ETV
attr interpolationmode sample-hold
attr source channelBusy
vector 24 SatNet.sat1_9.upper$o.channel busy:vector ETV
attr interpolationmode sample-hold
attr source channelBusy
vector 25 SatNet.sat1_9.lower$o.channel busy:vector ETV
attr interpolationmode sample-hold
attr source channelBusy
vector 26 SatNet.sat1_9.right$o.channel busy:vector ETV
attr interpolationmode sample-hold
attr source channelBusy
vector 27 SatNet.sat1_10.upper$o.channel busy:vector ETV
attr interpolationmode sample-hold
attr source channelBusy
vector 28 SatNet.sat1_10.lower$o.channel busy:vector ETV
attr interpolationmode sample-hold
attr source channelBusy
vector 29 SatNet.sat1_10.right$o.channel busy:vector ETV
attr interpolationmode sample-hold
attr source channelBusy
vector 30 SatNet.sat1_11.upper$o.channel busy:vector ETV
attr interpolationmode sample-hold
attr source channelBusy
vector 31 SatNet.sat1_11.lower$o.channel busy:vector ETV
attr interpolationmode sample-hold
attr source channelBusy
vector 32 SatNet.sat1_11.right$o.channel busy:vector ETV
attr interpolationmode sample-hold
attr source channelBusy
vector 33 SatNet.sat2_1.upper$o.channel busy:vector ETV
attr interpolationmode sample-hold
attr source channelBusy
vector 34 SatNet.sat2_1.lower$o.channel busy:vector ETV
attr interpolationmode sample-hold
attr source channelBusy
vector 35 SatNet.sat2_1.left$o.channel busy:vector ETV
attr interpolationmode sample-hold
attr source channelBusy
vector 36 SatNet.sat2_1.right$o.channel busy:vector ETV
attr interpolationmode sample-hold
attr source channelBusy
vector 37 SatNet.sat2_2.upper$o.channel busy:vector ETV
attr interpolationmode sample-hold
attr source channelBusy
vector 38 SatNet.sat2_2.lower$o.channel busy:vector ETV
attr interpolationmode sample-hold
attr source channelBusy
vector 39 SatNet.sat2_2.left$o.channel busy:vector ETV
attr interpolationmode sample-hold
attr source channelBusy
vector 40 SatNet.sat2_2.right$o.channel busy:vector ETV
attr interpolationmode sample-hold
attr source channelBusy
vector 41 SatNet.sat2_3.upper$o.channel busy:vector ETV
attr interpolationmode sample-hold
attr source channelBusy
vector 42 SatNet.sat2_3.lower$o.channel busy:vector ETV
attr interpolationmode sample-hold
attr source channelBusy
vector 43 SatNet.sat2_3.left$o.channel busy:vector ETV
attr interpolationmode sample-hold
attr source channelBusy
vector 44 SatNet.sat2_3.right$o.channel busy:vector ETV
attr interpolationmode sample-hold
attr source channelBusy
vector 45 SatNet.sat2_4.upper$o.channel busy:vector ETV
attr interpolationmode sample-hold
attr source channelBusy
vector 46 SatNet.sat2_4.lower$o.channel busy:vector ETV
attr interpolationmode sample-hold
attr source channelBusy
vector 47 SatNet.sat2_4.left$o.channel busy:vector ETV
attr interpolationmode sample-hold
attr source channelBusy
vector 48 SatNet.sat2_4.right$o.channel busy:vector ETV
attr interpolationmode sample-hold
attr source channelBusy
vector 49 SatNet.sat2_5.upper$o.channel busy:vector ETV
attr interpolationmode sample-hold
attr source channelBusy
vector 50 SatNet.sat2_5.lower$o.channel busy:vector ETV
attr interpolationmode sample-hold
attr source channelBusy
vector 51 SatNet.sat2_5.left$o.channel busy:vector ETV
attr interpolationmode sample-hold
attr source channelBusy
vector 52 SatNet.sat2_5.right$o.channel busy:vector ETV
attr interpolationmode sample-hold
attr source channelBusy
vector 53 SatNet.sat2_6.upper$o.channel busy:vector ETV
attr interpolationmode sample-hold
attr source channelBusy
vector 54 SatNet.sat2_6.lower$o.channel busy:vector ETV
attr interpolationmode sample-hold
attr source channelBusy
vector 55 SatNet.sat2_6.left$o.channel busy:vector ETV
attr interpolationmode sample-hold
attr source channelBusy
vector 56 SatNet.sat2_6.right$o.channel busy:vector ETV
attr interpolationmode sample-hold
attr source channelBusy
vector 57 SatNet.sat2_7.upper$o.channel busy:vector ETV
attr interpolationmode sample-hold
attr source channelBusy
vector 58 SatNet.sat2_7.lower$o.channel busy:vector ETV
attr interpolationmode sample-hold
attr source channelBusy
vector 59 SatNet.sat2_7.left$o.channel busy:vector ETV
attr interpolationmode sample-hold
attr source channelBusy
vector 60 SatNet.sat2_7.right$o.channel busy:vector ETV
attr interpolationmode sample-hold
attr source channelBusy
vector 61 SatNet.sat2_8.upper$o.channel busy:vector ETV
attr interpolationmode sample-hold
attr source channelBusy
vector 62 SatNet.sat2_8.lower$o.channel busy:vector ETV
attr interpolationmode sample-hold
attr source channelBusy
vector 63 SatNet.sat2_8.left$o.channel busy:vector ETV
attr interpolationmode sample-hold
attr source channelBusy
vector 64 SatNet.sat2_8.right$o.channel busy:vector ETV
attr interpolationmode sample-hold
attr source channelBusy
vector 65 SatNet.sat2_9.upper$o.channel busy:vector ETV
attr interpolationmode sample-hold
attr source channelBusy
vector 66 SatNet.sat2_9.lower$o.channel busy:vector ETV
attr interpolationmode sample-hold
attr source channelBusy
vector 67 SatNet.sat2_9.left$o.channel busy:vector ETV
attr interpolationmode sample-hold
attr source channelBusy
vector 68 SatNet.sat2_9.right$o.channel busy:vector ETV
attr interpolationmode sample-hold
attr source channelBusy
vector 69 SatNet.sat2_10.upper$o.channel busy:vector ETV
attr interpolationmode sample-hold
attr source channelBusy
vector 70 SatNet.sat2_10.lower$o.channel busy:vector ETV
attr interpolationmode sample-hold
attr source channelBusy
vector 71 SatNet.sat2_10.left$o.channel busy:vector ETV
attr interpolationmode sample-hold
attr source channelBusy
vector 72 SatNet.sat2_10.right$o.channel busy:vector ETV
attr interpolationmode sample-hold
attr source channelBusy
vector 73 SatNet.sat2_11.upper$o.channel busy:vector ETV
attr interpolationmode sample-hold
attr source channelBusy
vector 74 SatNet.sat2_11.lower$o.channel busy:vector ETV
attr interpolationmode sample-hold
attr source channelBusy
vector 75 SatNet.sat2_11.left$o.channel busy:vector ETV
attr interpolationmode sample-hold
attr source channelBusy
vector 76 SatNet.sat2_11.right$o.channel busy:vector ETV
attr interpolationmode sample-hold
attr source channelBusy
vector 77 SatNet.sat3_1.upper$o.channel busy:vector ETV
attr interpolationmode sample-hold
attr source channelBusy
vector 78 SatNet.sat3_1.lower$o.channel busy:vector ETV
attr interpolationmode sample-hold
attr source channelBusy
vector 79 SatNet.sat3_1.left$o.channel busy:vector ETV
attr interpolationmode sample-hold
attr source channelBusy
vector 80 SatNet.sat3_1.right$o.channel busy:vector ETV
attr interpolationmode sample-hold
attr source channelBusy
vector 81 SatNet.sat3_2.upper$o.channel busy:vector ETV
attr interpolationmode sample-hold
attr source channelBusy
vector 82 SatNet.sat3_2.lower$o.channel busy:vector ETV
attr interpolationmode sample-hold
attr source channelBusy
vector 83 SatNet.sat3_2.left$o.channel busy:vector ETV
attr interpolationmode sample-hold
attr source channelBusy
vector 84 SatNet.sat3_2.right$o.channel busy:vector ETV
attr interpolationmode sample-hold
attr source channelBusy
vector 85 SatNet.sat3_3.upper$o.channel busy:vector ETV
attr interpolationmode sample-hold
attr source channelBusy
vector 86 SatNet.sat3_3.lower$o.channel busy:vector ETV
attr interpolationmode sample-hold
attr source channelBusy
vector 87 SatNet.sat3_3.left$o.channel busy:vector ETV
attr interpolationmode sample-hold
attr source channelBusy
vector 88 SatNet.sat3_3.right$o.channel busy:vector ETV
attr interpolationmode sample-hold
attr source channelBusy
vector 89 SatNet.sat3_4.upper$o.channel busy:vector ETV
attr interpolationmode sample-hold
attr source channelBusy
vector 90 SatNet.sat3_4.lower$o.channel busy:vector ETV
attr interpolationmode sample-hold
attr source channelBusy
vector 91 SatNet.sat3_4.left$o.channel busy:vector ETV
attr interpolationmode sample-hold
attr source channelBusy
vector 92 SatNet.sat3_4.right$o.channel busy:vector ETV
attr interpolationmode sample-hold
attr source channelBusy
vector 93 SatNet.sat3_5.upper$o.channel busy:vector ETV
attr interpolationmode sample-hold
attr source channelBusy
vector 94 SatNet.sat3_5.lower$o.channel busy:vector ETV
attr interpolationmode sample-hold
attr source channelBusy
vector 95 SatNet.sat3_5.left$o.channel busy:vector ETV
attr interpolationmode sample-hold
attr source channelBusy
vector 96 SatNet.sat3_5.right$o.channel busy:vector ETV
attr interpolationmode sample-hold
attr source channelBusy
vector 97 SatNet.sat3_6.upper$o.channel busy:vector ETV
attr interpolationmode sample-hold
attr source channelBusy
vector 98 SatNet.sat3_6.lower$o.channel busy:vector ETV
attr interpolationmode sample-hold
attr source channelBusy
vector 99 SatNet.sat3_6.left$o.channel busy:vector ETV
attr interpolationmode sample-hold
attr source channelBusy
vector 100 SatNet.sat3_6.right$o.channel busy:vector ETV
attr interpolationmode sample-hold
attr source channelBusy
vector 101 SatNet.sat3_7.upper$o.channel busy:vector ETV
attr interpolationmode sample-hold
attr source channelBusy
vector 102 SatNet.sat3_7.lower$o.channel busy:vector ETV
attr interpolationmode sample-hold
attr source channelBusy
vector 103 SatNet.sat3_7.left$o.channel busy:vector ETV
attr interpolationmode sample-hold
attr source channelBusy
vector 104 SatNet.sat3_7.right$o.channel busy:vector ETV
attr interpolationmode sample-hold
attr source channelBusy
vector 105 SatNet.sat3_8.upper$o.channel busy:vector ETV
attr interpolationmode sample-hold
attr source channelBusy
vector 106 SatNet.sat3_8.lower$o.channel busy:vector ETV
attr interpolationmode sample-hold
attr source channelBusy
vector 107 SatNet.sat3_8.left$o.channel busy:vector ETV
attr interpolationmode sample-hold
attr source channelBusy
vector 108 SatNet.sat3_8.right$o.channel busy:vector ETV
attr interpolationmode sample-hold
attr source channelBusy
vector 109 SatNet.sat3_9.upper$o.channel busy:vector ETV
attr interpolationmode sample-hold
attr source channelBusy
vector 110 SatNet.sat3_9.lower$o.channel busy:vector ETV
attr interpolationmode sample-hold
attr source channelBusy
vector 111 SatNet.sat3_9.left$o.channel busy:vector ETV
attr interpolationmode sample-hold
attr source channelBusy
vector 112 SatNet.sat3_9.right$o.channel busy:vector ETV
attr interpolationmode sample-hold
attr source channelBusy
vector 113 SatNet.sat3_10.upper$o.channel busy:vector ETV
attr interpolationmode sample-hold
attr source channelBusy
vector 114 SatNet.sat3_10.lower$o.channel busy:vector ETV
attr interpolationmode sample-hold
attr source channelBusy
vector 115 SatNet.sat3_10.left$o.channel busy:vector ETV
attr interpolationmode sample-hold
attr source channelBusy
vector 116 SatNet.sat3_10.right$o.channel busy:vector ETV
attr interpolationmode sample-hold
attr source channelBusy
vector 117 SatNet.sat3_11.upper$o.channel busy:vector ETV
attr interpolationmode sample-hold
attr source channelBusy
vector 118 SatNet.sat3_11.lower$o.channel busy:vector ETV
attr interpolationmode sample-hold
attr source channelBusy
vector 119 SatNet.sat3_11.left$o.channel busy:vector ETV
attr interpolationmode sample-hold
attr source channelBusy
vector 120 SatNet.sat3_11.right$o.channel busy:vector ETV
attr interpolationmode sample-hold
attr source channelBusy
vector 121 SatNet.sat4_1.upper$o.channel busy:vector ETV
attr interpolationmode sample-hold
attr source channelBusy
vector 122 SatNet.sat4_1.lower$o.channel busy:vector ETV
attr interpolationmode sample-hold
attr source channelBusy
vector 123 SatNet.sat4_1.left$o.channel busy:vector ETV
attr interpolationmode sample-hold
attr source channelBusy
vector 124 SatNet.sat4_1.right$o.channel busy:vector ETV
attr interpolationmode sample-hold
attr source channelBusy
vector 125 SatNet.sat4_2.upper$o.channel busy:vector ETV
attr interpolationmode sample-hold
attr source channelBusy
vector 126 SatNet.sat4_2.lower$o.channel busy:vector ETV
attr interpolationmode sample-hold
attr source channelBusy
vector 127 SatNet.sat4_2.left$o.channel busy:vector ETV
attr interpolationmode sample-hold
attr source channelBusy
vector 128 SatNet.sat4_2.right$o.channel busy:vector ETV
attr interpolationmode sample-hold
attr source channelBusy
vector 129 SatNet.sat4_3.upper$o.channel busy:vector ETV
attr interpolationmode sample-hold
attr source channelBusy
vector 130 SatNet.sat4_3.lower$o.channel busy:vector ETV
attr interpolationmode sample-hold
attr source channelBusy
vector 131 SatNet.sat4_3.left$o.channel busy:vector ETV
attr interpolationmode sample-hold
attr source channelBusy
vector 132 SatNet.sat4_3.right$o.channel busy:vector ETV
attr interpolationmode sample-hold
attr source channelBusy
vector 133 SatNet.sat4_4.upper$o.channel busy:vector ETV
attr interpolationmode sample-hold
attr source channelBusy
vector 134 SatNet.sat4_4.lower$o.channel busy:vector ETV
attr interpolationmode sample-hold
attr source channelBusy
vector 135 SatNet.sat4_4.left$o.channel busy:vector ETV
attr interpolationmode sample-hold
attr source channelBusy
vector 136 SatNet.sat4_4.right$o.channel busy:vector ETV
attr interpolationmode sample-hold
attr source channelBusy
vector 137 SatNet.sat4_5.upper$o.channel busy:vector ETV
attr interpolationmode sample-hold
attr source channelBusy
vector 138 SatNet.sat4_5.lower$o.channel busy:vector ETV
attr interpolationmode sample-hold
attr source channelBusy
vector 139 SatNet.sat4_5.left$o.channel busy:vector ETV
attr interpolationmode sample-hold
attr source channelBusy
vector 140 SatNet.sat4_5.right$o.channel busy:vector ETV
attr interpolationmode sample-hold
attr source channelBusy
vector 141 SatNet.sat4_6.upper$o.channel busy:vector ETV
attr interpolationmode sample-hold
attr source channelBusy
vector 142 SatNet.sat4_6.lower$o.channel busy:vector ETV
attr interpolationmode sample-hold
attr source channelBusy
vector 143 SatNet.sat4_6.left$o.channel busy:vector ETV
attr interpolationmode sample-hold
attr source channelBusy
vector 144 SatNet.sat4_6.right$o.channel busy:vector ETV
attr interpolationmode sample-hold
attr source channelBusy
vector 145 SatNet.sat4_7.upper$o.channel busy:vector ETV
attr interpolationmode sample-hold
attr source channelBusy
vector 146 SatNet.sat4_7.lower$o.channel busy:vector ETV
attr interpolationmode sample-hold
attr source channelBusy
vector 147 SatNet.sat4_7.left$o.channel busy:vector ETV
attr interpolationmode sample-hold
attr source channelBusy
vector 148 SatNet.sat4_7.right$o.channel busy:vector ETV
attr interpolationmode sample-hold
attr source channelBusy
vector 149 SatNet.sat4_8.upper$o.channel busy:vector ETV
attr interpolationmode sample-hold
attr source channelBusy
vector 150 SatNet.sat4_8.lower$o.channel busy:vector ETV
attr interpolationmode sample-hold
attr source channelBusy
vector 151 SatNet.sat4_8.left$o.channel busy:vector ETV
attr interpolationmode sample-hold
attr source channelBusy
vector 152 SatNet.sat4_8.right$o.channel busy:vector ETV
attr interpolationmode sample-hold
attr source channelBusy
vector 153 SatNet.sat4_9.upper$o.channel busy:vector ETV
attr interpolationmode sample-hold
attr source channelBusy
vector 154 SatNet.sat4_9.lower$o.channel busy:vector ETV
attr interpolationmode sample-hold
attr source channelBusy
vector 155 SatNet.sat4_9.left$o.channel busy:vector ETV
attr interpolationmode sample-hold
attr source channelBusy
vector 156 SatNet.sat4_9.right$o.channel busy:vector ETV
attr interpolationmode sample-hold
attr source channelBusy
vector 157 SatNet.sat4_10.upper$o.channel busy:vector ETV
attr interpolationmode sample-hold
attr source channelBusy
vector 158 SatNet.sat4_10.lower$o.channel busy:vector ETV
attr interpolationmode sample-hold
attr source channelBusy
vector 159 SatNet.sat4_10.left$o.channel busy:vector ETV
attr interpolationmode sample-hold
attr source channelBusy
vector 160 SatNet.sat4_10.right$o.channel busy:vector ETV
attr interpolationmode sample-hold
attr source channelBusy
vector 161 SatNet.sat4_11.upper$o.channel busy:vector ETV
attr interpolationmode sample-hold
attr source channelBusy
vector 162 SatNet.sat4_11.lower$o.channel busy:vector ETV
attr interpolationmode sample-hold
attr source channelBusy
vector 163 SatNet.sat4_11.left$o.channel busy:vector ETV
attr interpolationmode sample-hold
attr source channelBusy
vector 164 SatNet.sat4_11.right$o.channel busy:vector ETV
attr interpolationmode sample-hold
attr source channelBusy
vector 165 SatNet.sat5_1.upper$o.channel busy:vector ETV
attr interpolationmode sample-hold
attr source channelBusy
vector 166 SatNet.sat5_1.lower$o.channel busy:vector ETV
attr interpolationmode sample-hold
attr source channelBusy
vector 167 SatNet.sat5_1.left$o.channel busy:vector ETV
attr interpolationmode sample-hold
attr source channelBusy
vector 168 SatNet.sat5_1.right$o.channel busy:vector ETV
attr interpolationmode sample-hold
attr source channelBusy
vector 169 SatNet.sat5_2.upper$o.channel busy:vector ETV
attr interpolationmode sample-hold
attr source channelBusy
vector 170 SatNet.sat5_2.lower$o.channel busy:vector ETV
attr interpolationmode sample-hold
attr source channelBusy
vector 171 SatNet.sat5_2.left$o.channel busy:vector ETV
attr interpolationmode sample-hold
attr source channelBusy
vector 172 SatNet.sat5_2.right$o.channel busy:vector ETV
attr interpolationmode sample-hold
attr source channelBusy
vector 173 SatNet.sat5_3.upper$o.channel busy:vector ETV
attr interpolationmode sample-hold
attr source channelBusy
vector 174 SatNet.sat5_3.lower$o.channel busy:vector ETV
attr interpolationmode sample-hold
attr source channelBusy
vector 175 SatNet.sat5_3.left$o.channel busy:vector ETV
attr interpolationmode sample-hold
attr source channelBusy
vector 176 SatNet.sat5_3.right$o.channel busy:vector ETV
attr interpolationmode sample-hold
attr source channelBusy
vector 177 SatNet.sat5_4.upper$o.channel busy:vector ETV
attr interpolationmode sample-hold
attr source channelBusy
vector 178 SatNet.sat5_4.lower$o.channel busy:vector ETV
attr interpolationmode sample-hold
attr source channelBusy
vector 179 SatNet.sat5_4.left$o.channel busy:vector ETV
attr interpolationmode sample-hold
attr source channelBusy
vector 180 SatNet.sat5_4.right$o.channel busy:vector ETV
attr interpolationmode sample-hold
attr source channelBusy
vector 181 SatNet.sat5_5.upper$o.channel busy:vector ETV
attr interpolationmode sample-hold
attr source channelBusy
vector 182 SatNet.sat5_5.lower$o.channel busy:vector ETV
attr interpolationmode sample-hold
attr source channelBusy
vector 183 SatNet.sat5_5.left$o.channel busy:vector ETV
attr interpolationmode sample-hold
attr source channelBusy
vector 184 SatNet.sat5_5.right$o.channel busy:vector ETV
attr interpolationmode sample-hold
attr source channelBusy
vector 185 SatNet.sat5_6.upper$o.channel busy:vector ETV
attr interpolationmode sample-hold
attr source channelBusy
vector 186 SatNet.sat5_6.lower$o.channel busy:vector ETV
attr interpolationmode sample-hold
attr source channelBusy
vector 187 SatNet.sat5_6.left$o.channel busy:vector ETV
attr interpolationmode sample-hold
attr source channelBusy
vector 188 SatNet.sat5_6.right$o.channel busy:vector ETV
attr interpolationmode sample-hold
attr source channelBusy
vector 189 SatNet.sat5_7.upper$o.channel busy:vector ETV
attr interpolationmode sample-hold
attr source channelBusy
vector 190 SatNet.sat5_7.lower$o.channel busy:vector ETV
attr interpolationmode sample-hold
attr source channelBusy
vector 191 SatNet.sat5_7.left$o.channel busy:vector ETV
attr interpolationmode sample-hold
attr source channelBusy
vector 192 SatNet.sat5_7.right$o.channel busy:vector ETV
attr interpolationmode sample-hold
attr source channelBusy
vector 193 SatNet.sat5_8.upper$o.channel busy:vector ETV
attr interpolationmode sample-hold
attr source channelBusy
vector 194 SatNet.sat5_8.lower$o.channel busy:vector ETV
attr interpolationmode sample-hold
attr source channelBusy
vector 195 SatNet.sat5_8.left$o.channel busy:vector ETV
attr interpolationmode sample-hold
attr source channelBusy
vector 196 SatNet.sat5_8.right$o.channel busy:vector ETV
attr interpolationmode sample-hold
attr source channelBusy
vector 197 SatNet.sat5_9.upper$o.channel busy:vector ETV
attr interpolationmode sample-hold
attr source channelBusy
vector 198 SatNet.sat5_9.lower$o.channel busy:vector ETV
attr interpolationmode sample-hold
attr source channelBusy
vector 199 SatNet.sat5_9.left$o.channel busy:vector ETV
attr interpolationmode sample-hold
attr source channelBusy
vector 200 SatNet.sat5_9.right$o.channel busy:vector ETV
attr interpolationmode sample-hold
attr source channelBusy
vector 201 SatNet.sat5_10.upper$o.channel busy:vector ETV
attr interpolationmode sample-hold
attr source channelBusy
vector 202 SatNet.sat5_10.lower$o.channel busy:vector ETV
attr interpolationmode sample-hold
attr source channelBusy
vector 203 SatNet.sat5_10.left$o.channel busy:vector ETV
attr interpolationmode sample-hold
attr source channelBusy
vector 204 SatNet.sat5_10.right$o.channel busy:vector ETV
attr interpolationmode sample-hold
attr source channelBusy
vector 205 SatNet.sat5_11.upper$o.channel busy:vector ETV
attr interpolationmode sample-hold
attr source channelBusy
vector 206 SatNet.sat5_11.lower$o.channel busy:vector ETV
attr interpolationmode sample-hold
attr source channelBusy
vector 207 SatNet.sat5_11.left$o.channel busy:vector ETV
attr interpolationmode sample-hold
attr source channelBusy
vector 208 SatNet.sat5_11.right$o.channel busy:vector ETV
attr interpolationmode sample-hold
attr source channelBusy
vector 209 SatNet.sat6_1.upper$o.channel busy:vector ETV
attr interpolationmode sample-hold
attr source channelBusy
vector 210 SatNet.sat6_1.lower$o.channel busy:vector ETV
attr interpolationmode sample-hold
attr source channelBusy
vector 211 SatNet.sat6_1.left$o.channel busy:vector ETV
attr interpolationmode sample-hold
attr source channelBusy
vector 212 SatNet.sat6_2.upper$o.channel busy:vector ETV
attr interpolationmode sample-hold
attr source channelBusy
vector 213 SatNet.sat6_2.lower$o.channel busy:vector ETV
attr interpolationmode sample-hold
attr source channelBusy
vector 214 SatNet.sat6_2.left$o.channel busy:vector ETV
attr interpolationmode sample-hold
attr source channelBusy
vector 215 SatNet.sat6_3.upper$o.channel busy:vector ETV
attr interpolationmode sample-hold
attr source channelBusy
vector 216 SatNet.sat6_3.lower$o.channel busy:vector ETV
attr interpolationmode sample-hold
attr source channelBusy
vector 217 SatNet.sat6_3.left$o.channel busy:vector ETV
attr interpolationmode sample-hold
attr source channelBusy
vector 218 SatNet.sat6_4.upper$o.channel busy:vector ETV
attr interpolationmode sample-hold
attr source channelBusy
vector 219 SatNet.sat6_4.lower$o.channel busy:vector ETV
attr interpolationmode sample-hold
attr source channelBusy
vector 220 SatNet.sat6_4.left$o.channel busy:vector ETV
attr interpolationmode sample-hold
attr source channelBusy
vector 221 SatNet.sat6_5.upper$o.channel busy:vector ETV
attr interpolationmode sample-hold
attr source channelBusy
vector 222 SatNet.sat6_5.lower$o.channel busy:vector ETV
attr interpolationmode sample-hold
attr source channelBusy
vector 223 SatNet.sat6_5.left$o.channel busy:vector ETV
attr interpolationmode sample-hold
attr source channelBusy
vector 224 SatNet.sat6_6.upper$o.channel busy:vector ETV
attr interpolationmode sample-hold
attr source channelBusy
vector 225 SatNet.sat6_6.lower$o.channel busy:vector ETV
attr interpolationmode sample-hold
attr source channelBusy
vector 226 SatNet.sat6_6.left$o.channel busy:vector ETV
attr interpolationmode sample-hold
attr source channelBusy
vector 227 SatNet.sat6_7.upper$o.channel busy:vector ETV
attr interpolationmode sample-hold
attr source channelBusy
vector 228 SatNet.sat6_7.lower$o.channel busy:vector ETV
attr interpolationmode sample-hold
attr source channelBusy
vector 229 SatNet.sat6_7.left$o.channel busy:vector ETV
attr interpolationmode sample-hold
attr source channelBusy
vector 230 SatNet.sat6_8.upper$o.channel busy:vector ETV
attr interpolationmode sample-hold
attr source channelBusy
vector 231 SatNet.sat6_8.lower$o.channel busy:vector ETV
attr interpolationmode sample-hold
attr source channelBusy
vector 232 SatNet.sat6_8.left$o.channel busy:vector ETV
attr interpolationmode sample-hold
attr source channelBusy
vector 233 SatNet.sat6_9.upper$o.channel busy:vector ETV
attr interpolationmode sample-hold
attr source channelBusy
vector 234 SatNet.sat6_9.lower$o.channel busy:vector ETV
attr interpolationmode sample-hold
attr source channelBusy
vector 235 SatNet.sat6_9.left$o.channel busy:vector ETV
attr interpolationmode sample-hold
attr source channelBusy
vector 236 SatNet.sat6_10.upper$o.channel busy:vector ETV
attr interpolationmode sample-hold
attr source channelBusy
vector 237 SatNet.sat6_10.lower$o.channel busy:vector ETV
attr interpolationmode sample-hold
attr source channelBusy
vector 238 SatNet.sat6_10.left$o.channel busy:vector ETV
attr interpolationmode sample-hold
attr source channelBusy
vector 239 SatNet.sat6_11.upper$o.channel busy:vector ETV
attr interpolationmode sample-hold
attr source channelBusy
vector 240 SatNet.sat6_11.lower$o.channel busy:vector ETV
attr interpolationmode sample-hold
attr source channelBusy
vector 241 SatNet.sat6_11.left$o.channel busy:vector ETV
attr interpolationmode sample-hold
attr source channelBusy
vector 242 SatNet.sat4_6 occupy:vector ETV
attr interpolationmode none
attr source occupy
attr title "Empty-Full Ratio of Queue, vector"
vector 243 SatNet.sat4_6 batteryEnergy:vector ETV
attr checkSignals false
attr interpolationmode none
attr source energy
attr title "Battery energy, vector"
vector 244 SatNet.sat2_5 occupy:vector ETV
attr interpolationmode none
attr source occupy
attr title "Empty-Full Ratio of Queue, vector"
vector 245 SatNet.sat2_5 batteryEnergy:vector ETV
attr checkSignals false
attr interpolationmode none
attr source energy
attr title "Battery energy, vector"
vector 246 SatNet.sat2_6 occupy:vector ETV
attr interpolationmode none
attr source occupy
attr title "Empty-Full Ratio of Queue, vector"
vector 247 SatNet.sat2_6 batteryEnergy:vector ETV
attr checkSignals false
attr interpolationmode none
attr source energy